 Gaussian 16, Revision C.01,
 Gaussian 16:  ES64L-G16RevC.01  3-Jul-2019

 ----------------------------------------------------------------------
 # IRC(RCFC,MaxPoints=40,Step=20,Recorrect=Never,Phase=(1,2,4)) APFd 6-
 311+G(2d,p) Int(Ultrafine,Acc2E=12) geom=check guess=read
 ----------------------------------------------------------------------

 -------------------
 CH2O <---> HCOH IRC
 -------------------
 Structure from the checkpoint file:  "e6_07_irc2.chk"
 Charge =  0 Multiplicity = 1

 SCF Done:  E(RAPFD) =  -114.309881681     A.U. after   10 cycles
 SCF Done:  E(RAPFD) =  -114.318361314     A.U. after   10 cycles
 SCF Done:  E(RAPFD) =  -114.328961749     A.U. after   10 cycles
 SCF Done:  E(RAPFD) =  -114.339271483     A.U. after   10 cycles
 SCF Done:  E(RAPFD) =  -114.347926434     A.U. after    9 cycles
 SCF Done:  E(RAPFD) =  -114.354294355     A.U. after    9 cycles
 SCF Done:  E(RAPFD) =  -114.358152146     A.U. after    9 cycles
 SCF Done:  E(RAPFD) =  -114.359446562     A.U. after    9 cycles
 SCF Done:  E(RAPFD) =  -114.310246566     A.U. after   11 cycles
 SCF Done:  E(RAPFD) =  -114.321151487     A.U. after   10 cycles
 SCF Done:  E(RAPFD) =  -114.337448210     A.U. after   10 cycles
 SCF Done:  E(RAPFD) =  -114.356658848     A.U. after   10 cycles
 SCF Done:  E(RAPFD) =  -114.376469343     A.U. after    9 cycles
 SCF Done:  E(RAPFD) =  -114.395156630     A.U. after    9 cycles
 SCF Done:  E(RAPFD) =  -114.411553529     A.U. after    9 cycles
 SCF Done:  E(RAPFD) =  -114.424917299     A.U. after    9 cycles
 SCF Done:  E(RAPFD) =  -114.434836403     A.U. after    9 cycles
 SCF Done:  E(RAPFD) =  -114.441119876     A.U. after    9 cycles
 SCF Done:  E(RAPFD) =  -114.443812460     A.U. after    9 cycles

                          Input orientation:
 ---------------------------------------------------------------------
 Center     Atomic      Atomic             Coordinates (Angstroms)
 Number     Number       Type             X           Y           Z
 ---------------------------------------------------------------------
      1          6           0        0.162432    0.570126   -0.091046
      2          8           0       -0.164448   -0.567717    0.090957
      3          1           0       -0.557569    1.408513   -0.119711
      4          1           0        1.235160    0.817540   -0.240519
 ---------------------------------------------------------------------

 Alpha  occ. eigenvalues --  -19.19023 -10.29822  -1.09314  -0.65236  -0.51488
 Alpha  occ. eigenvalues --   -0.47152  -0.42094  -0.28471
 Alpha virt. eigenvalues --   -0.05470   0.01954   0.05034   0.05284   0.07445
 Alpha virt. eigenvalues --    0.13758   0.19204   0.19982   0.23438   0.24374
 Alpha virt. eigenvalues --    0.27849   0.32963   0.46249   0.48262   0.52279

 Mulliken charges:
               1
     1  C    0.074136
     2  O   -0.290921
     3  H    0.110389
     4  H    0.106396
 Sum of Mulliken charges =  -0.00000

 Dipole moment (field-independent basis, Debye):
    X=              0.6473    Y=              2.2898    Z=             -0.3651  Tot=              2.4074
 Quadrupole moment (field-independent basis, Debye-Ang):
   XX=            -11.6227   YY=            -11.7900   ZZ=            -11.7076
   XY=             -0.1466   XZ=              0.0100   YZ=              0.0273

  Exact polarizability:       0.000       0.000       0.000       0.000       0.000       0.000
 Approx polarizability:      19.971       2.975      29.959      -1.095      -2.444      13.903

 Normal termination of Gaussian 16 at Wed Sep 30 09:26:55 2020.
