 Gaussian 16, Revision C.01,
 Gaussian 16:  ES64L-G16RevC.01  3-Jul-2019

 ----------------------------------------------------------------------
 # apfd/6-311+g(2d,p) geom=check guess=read Int=(Ultrafine,Acc2E=12) IR
 C(RCFC,MaxPoints=40,Step=20,Recorrect=Never,Phase=(1,4))
 ----------------------------------------------------------------------

 ----------------------
 CH2O <---> CO + H2 IRC
 ----------------------
 Structure from the checkpoint file:  "e6_07_irc1.chk"
 Charge =  0 Multiplicity = 1

 SCF Done:  E(RAPFD) =  -114.310508525     A.U. after   10 cycles
 SCF Done:  E(RAPFD) =  -114.319888865     A.U. after   10 cycles
 SCF Done:  E(RAPFD) =  -114.333904333     A.U. after   10 cycles
 SCF Done:  E(RAPFD) =  -114.349850981     A.U. after   10 cycles
 SCF Done:  E(RAPFD) =  -114.364618296     A.U. after   10 cycles
 SCF Done:  E(RAPFD) =  -114.377156398     A.U. after    9 cycles
 SCF Done:  E(RAPFD) =  -114.387347743     A.U. after    9 cycles
 SCF Done:  E(RAPFD) =  -114.395462098     A.U. after    9 cycles
 SCF Done:  E(RAPFD) =  -114.400839440     A.U. after    9 cycles
 SCF Done:  E(RAPFD) =  -114.406341525     A.U. after    9 cycles
 SCF Done:  E(RAPFD) =  -114.334139160     A.U. after   10 cycles
 SCF Done:  E(RAPFD) =  -114.351696573     A.U. after   10 cycles
 SCF Done:  E(RAPFD) =  -114.370853751     A.U. after    9 cycles
 SCF Done:  E(RAPFD) =  -114.390008661     A.U. after    9 cycles
 SCF Done:  E(RAPFD) =  -114.407587118     A.U. after    9 cycles
 SCF Done:  E(RAPFD) =  -114.421966497     A.U. after    9 cycles
 SCF Done:  E(RAPFD) =  -114.432309885     A.U. after    9 cycles
 SCF Done:  E(RAPFD) =  -114.439056854     A.U. after    9 cycles
 SCF Done:  E(RAPFD) =  -114.442820319     A.U. after    8 cycles
 SCF Done:  E(RAPFD) =  -114.443369750     A.U. after    9 cycles

                          Input orientation:
 ---------------------------------------------------------------------
 Center     Atomic      Atomic             Coordinates (Angstroms)
 Number     Number       Type             X           Y           Z
 ---------------------------------------------------------------------
      1          6           0        0.188343    0.023964   -0.560619
      2          8           0       -0.204035   -0.025960    0.567065
      3          1           0       -0.518588   -0.065979   -1.442926
      4          1           0        1.282040    0.163115   -0.819234
 ---------------------------------------------------------------------

 Alpha  occ. eigenvalues --  -19.19240 -10.30310  -1.09592  -0.64689  -0.50949
 Alpha  occ. eigenvalues --   -0.47327  -0.42297  -0.28508
 Alpha virt. eigenvalues --   -0.05444   0.01835   0.04985   0.05272   0.07431
 Alpha virt. eigenvalues --    0.13189   0.18808   0.19869   0.23400   0.24261
 Alpha virt. eigenvalues --    0.27842   0.33107   0.45983   0.47435   0.52201

 Mulliken charges:
               1
     1  C    0.060027
     2  O   -0.279935
     3  H    0.109417
     4  H    0.110491
 Sum of Mulliken charges =  -0.00000

 Dipole moment (field-independent basis, Debye):
    X=              0.7784    Y=              0.0990    Z=             -2.2274  Tot=              2.3616
 Quadrupole moment (field-independent basis, Debye-Ang):
   XX=            -11.6503   YY=            -11.7453   ZZ=            -11.8769
   XY=              0.0123   XZ=              0.0864   YZ=              0.0110

  Exact polarizability:       0.000       0.000       0.000       0.000       0.000       0.000
 Approx polarizability:      21.317       0.991      13.654      -3.589      -0.457      30.454

 Normal termination of Gaussian 16 at Wed Sep 30 09:29:29 2020.
