 Gaussian 16, Revision C.01,
 Gaussian 16:  ES64L-G16RevC.01  3-Jul-2019

 ----------------------------------------------------------------------
 # IRC(CalcFC,MaxPoints=40,Step=20,Recorrect=Never,phase=(1,3,4)) APFd
 6-311+G(2d,p) Int(Ultrafine,Acc2E=12)
 ----------------------------------------------------------------------

 -----------------
 cis-trans HCOH TS
 -----------------
 Symbolic Z-matrix:
 Charge =  0 Multiplicity = 1

 SCF Done:  E(RAPFD) =  -114.310910736     A.U. after   11 cycles
 SCF Done:  E(RAPFD) =  -114.312769105     A.U. after   11 cycles
 SCF Done:  E(RAPFD) =  -114.317632004     A.U. after   11 cycles
 SCF Done:  E(RAPFD) =  -114.324234421     A.U. after   11 cycles
 SCF Done:  E(RAPFD) =  -114.331299724     A.U. after   10 cycles
 SCF Done:  E(RAPFD) =  -114.337929578     A.U. after   10 cycles
 SCF Done:  E(RAPFD) =  -114.343523903     A.U. after   10 cycles
 SCF Done:  E(RAPFD) =  -114.347707301     A.U. after   10 cycles
 SCF Done:  E(RAPFD) =  -114.350208580     A.U. after   10 cycles
 SCF Done:  E(RAPFD) =  -114.312837143     A.U. after   13 cycles
 SCF Done:  E(RAPFD) =  -114.318141667     A.U. after   11 cycles
 SCF Done:  E(RAPFD) =  -114.325627280     A.U. after   10 cycles
 SCF Done:  E(RAPFD) =  -114.333867105     A.U. after   10 cycles
 SCF Done:  E(RAPFD) =  -114.341801380     A.U. after   10 cycles
 SCF Done:  E(RAPFD) =  -114.348712691     A.U. after   10 cycles
 SCF Done:  E(RAPFD) =  -114.354119765     A.U. after   10 cycles
 SCF Done:  E(RAPFD) =  -114.357701245     A.U. after   10 cycles
 SCF Done:  E(RAPFD) =  -114.359257971     A.U. after    9 cycles

                          Input orientation:
 ---------------------------------------------------------------------
 Center     Atomic      Atomic             Coordinates (Angstroms)
 Number     Number       Type             X           Y           Z
 ---------------------------------------------------------------------
      1          6           0        0.598335    0.397678   -0.184258
      2          1           0        0.370003    1.382913    0.296321
      3          8           0       -0.453112   -0.307235    0.124474
      4          1           0       -0.340356   -1.219954   -0.202675
 ---------------------------------------------------------------------

 Alpha  occ. eigenvalues --  -19.26197 -10.26806  -1.14138  -0.70424  -0.50311
 Alpha  occ. eigenvalues --   -0.47698  -0.44542  -0.23450
 Alpha virt. eigenvalues --   -0.06131   0.00468   0.04541   0.07640   0.08147
 Alpha virt. eigenvalues --    0.13945   0.15118   0.18923   0.20343   0.22688
 Alpha virt. eigenvalues --    0.24877   0.31255   0.45344   0.49936   0.55526

 Mulliken charges:
               1
     1  C   -0.207637
     2  H    0.109317
     3  O   -0.232454
     4  H    0.330773
 Sum of Mulliken charges =  -0.00000

 Dipole moment (field-independent basis, Debye):
    X=             -1.3100    Y=             -1.0818    Z=              0.3976  Tot=              1.7448
 Quadrupole moment (field-independent basis, Debye-Ang):
   XX=            -15.7237   YY=             -8.7612   ZZ=            -13.1156
   XY=              0.6081   XZ=              1.9768   YZ=              0.7989

  Exact polarizability:       0.000       0.000       0.000       0.000       0.000       0.000
 Approx polarizability:      22.950       3.769      27.958      -0.611       0.996      19.934

 Normal termination of Gaussian 16 at Wed Sep 30 10:46:16 2020.
