 Gaussian 16, Revision C.01,
 Gaussian 16:  ES64L-G16RevC.01  3-Jul-2019

 ----------------------------------------------------------------------
 # IRC(CalcFC,MaxPoints=40,Step=20,Recorrect=Never,phase=(1,2)) APFd 6-
 311+G(2d,p) Int(Ultrafine,Acc2E=12)
 ----------------------------------------------------------------------

 ------------------------------
 cis Hydroxycarbene --> CO + H2
 ------------------------------
 Symbolic Z-matrix:
 Charge =  0 Multiplicity = 1

 SCF Done:  E(RAPFD) =  -114.269393323     A.U. after   11 cycles
 SCF Done:  E(RAPFD) =  -114.274097761     A.U. after   10 cycles
 SCF Done:  E(RAPFD) =  -114.286793237     A.U. after   10 cycles
 SCF Done:  E(RAPFD) =  -114.303802060     A.U. after   10 cycles
 SCF Done:  E(RAPFD) =  -114.321827973     A.U. after   10 cycles
 SCF Done:  E(RAPFD) =  -114.339074953     A.U. after   10 cycles
 SCF Done:  E(RAPFD) =  -114.354781080     A.U. after   10 cycles
 SCF Done:  E(RAPFD) =  -114.368537705     A.U. after    9 cycles
 SCF Done:  E(RAPFD) =  -114.380159798     A.U. after    9 cycles
 SCF Done:  E(RAPFD) =  -114.389706668     A.U. after    9 cycles
 SCF Done:  E(RAPFD) =  -114.421902457     A.U. after    8 cycles
 SCF Done:  E(RAPFD) =  -114.422464869     A.U. after    8 cycles
 SCF Done:  E(RAPFD) =  -114.273941894     A.U. after   12 cycles
 SCF Done:  E(RAPFD) =  -114.285549988     A.U. after   10 cycles
 SCF Done:  E(RAPFD) =  -114.300373129     A.U. after   10 cycles
 SCF Done:  E(RAPFD) =  -114.315159191     A.U. after   10 cycles
 SCF Done:  E(RAPFD) =  -114.328124692     A.U. after    9 cycles
 SCF Done:  E(RAPFD) =  -114.338417053     A.U. after    9 cycles
 SCF Done:  E(RAPFD) =  -114.345644875     A.U. after    9 cycles
 SCF Done:  E(RAPFD) =  -114.349826402     A.U. after    9 cycles

                          Input orientation:
 ---------------------------------------------------------------------
 Center     Atomic      Atomic             Coordinates (Angstroms)
 Number     Number       Type             X           Y           Z
 ---------------------------------------------------------------------
      1          6           0        0.094545    0.739142    0.000000
      2          1           0       -0.977010    1.077496   -0.000000
      3          8           0        0.046146   -0.568704   -0.000000
      4          1           0       -0.882042   -0.852668    0.000000
 ---------------------------------------------------------------------

 Alpha  occ. eigenvalues --  -19.26543 -10.27335  -1.14651  -0.68751  -0.57491
 Alpha  occ. eigenvalues --   -0.44707  -0.42952  -0.23805
 Alpha virt. eigenvalues --   -0.06551  -0.01275   0.05353   0.07771   0.08140
 Alpha virt. eigenvalues --    0.12364   0.15072   0.18193   0.20322   0.24404
 Alpha virt. eigenvalues --    0.26072   0.30399   0.45289   0.47974   0.54949

 Mulliken charges:
               1
     1  C   -0.206281
     2  H    0.090668
     3  O   -0.161008
     4  H    0.276621
 Sum of Mulliken charges =  -0.00000

 Dipole moment (field-independent basis, Debye):
    X=             -3.1700    Y=             -1.5141    Z=             -0.0000  Tot=              3.5130
 Quadrupole moment (field-independent basis, Debye-Ang):
   XX=            -11.9834   YY=            -13.8582   ZZ=            -12.2481
   XY=             -0.3021   XZ=             -0.0000   YZ=              0.0000

  Exact polarizability:       0.000       0.000       0.000       0.000       0.000       0.000
 Approx polarizability:      23.838      -0.671      28.755       0.000      -0.000      19.498

 Normal termination of Gaussian 16 at Wed Sep 30 10:47:50 2020.
